
     Program PWSCF v.6.4.1 starts on  8Nov2022 at 13:30:49 

     This program is part of the open-source Quantum ESPRESSO suite
     for quantum simulation of materials; please cite
         "P. Giannozzi et al., J. Phys.:Condens. Matter 21 395502 (2009);
         "P. Giannozzi et al., J. Phys.:Condens. Matter 29 465901 (2017);
          URL http://www.quantum-espresso.org", 
     in publications or presentations arising from this work. More details at
     http://www.quantum-espresso.org/quote

     Parallel version (MPI), running on     1 processors

     MPI processes distributed on     1 nodes
     Waiting for input...
     Reading input from standard input
Warning: card &BANDS ignored
Warning: card     LSYM           = .TRUE. ignored
Warning: card     SPIN_COMPONENT = 1 ignored
Warning: card / ignored

     Current dimensions of program PWSCF are:
     Max number of different atomic species (ntypx) = 10
     Max number of k-points (npk) =  40000
     Max angular momentum in pseudopotentials (lmaxx) =  3
     Message from routine iosys:
     wrong startingpot: use default (2)

     Atomic positions and unit cell read from directory:
     ./pwscf.save/

               file Si.pbe-n-kjpaw_psl.1.0.0.UPF: wavefunction(s)  3S 3P renormalized

     Subspace diagonalization in iterative solution of the eigenvalue problem:
     a serial algorithm will be used

     Found symmetry operation: I + (  0.0000 -0.5000 -0.5000)
     This is a supercell, fractional translations are disabled

     G-vector sticks info
     --------------------
     sticks:   dense  smooth     PW     G-vecs:    dense   smooth      PW
     Sum         853     853    261                18805    18805    3119



     bravais-lattice index     =            1
     lattice parameter (alat)  =      10.3344  a.u.
     unit-cell volume          =    1103.7127 (a.u.)^3
     number of atoms/cell      =            8
     number of atomic types    =            1
     number of electrons       =        32.00
     number of Kohn-Sham states=           32
     kinetic-energy cutoff     =      25.0000  Ry
     charge density cutoff     =     100.0000  Ry
     Exchange-correlation      = SLA PW PBX PBC ( 1  4  3  4 0 0)

     celldm(1)=  10.334402  celldm(2)=   0.000000  celldm(3)=   0.000000
     celldm(4)=   0.000000  celldm(5)=   0.000000  celldm(6)=   0.000000

     crystal axes: (cart. coord. in units of alat)
               a(1) = (   1.000000   0.000000   0.000000 )  
               a(2) = (   0.000000   1.000000   0.000000 )  
               a(3) = (   0.000000   0.000000   1.000000 )  

     reciprocal axes: (cart. coord. in units 2 pi/alat)
               b(1) = (  1.000000  0.000000  0.000000 )  
               b(2) = (  0.000000  1.000000  0.000000 )  
               b(3) = (  0.000000  0.000000  1.000000 )  


     PseudoPot. # 1 for Si read from file:
     /home/ABTLUS/mario.neto/.burai/.pseudopot/Si.pbe-n-kjpaw_psl.1.0.0.UPF
     MD5 check sum: c39c59da582df4a0d9f10159256ea34e
     Pseudo is Projector augmented-wave + core cor, Zval =  4.0
     Generated using "atomic" code by A. Dal Corso v.6.3
     Shape of augmentation charge: PSQ
     Using radial grid of 1141 points,  6 beta functions with: 
                l(1) =   0
                l(2) =   0
                l(3) =   1
                l(4) =   1
                l(5) =   2
                l(6) =   2
     Q(r) pseudized with 0 coefficients 


     atomic species   valence    mass     pseudopotential
        Si             4.00    28.08550     Si( 1.00)

     24 Sym. Ops. (no inversion) found



   Cartesian axes

     site n.     atom                  positions (alat units)
         1           Si  tau(   1) = (   0.0000000   0.0000000   0.0000000  )
         2           Si  tau(   2) = (   0.7500000   0.7500000   0.2500000  )
         3           Si  tau(   3) = (   0.0000000   0.5000000   0.5000000  )
         4           Si  tau(   4) = (   0.7500000   0.2500000   0.7500000  )
         5           Si  tau(   5) = (   0.5000000   0.0000000   0.5000000  )
         6           Si  tau(   6) = (   0.2500000   0.7500000   0.7500000  )
         7           Si  tau(   7) = (   0.5000000   0.5000000   0.0000000  )
         8           Si  tau(   8) = (   0.2500000   0.2500000   0.2500000  )

     number of k points=   122  gaussian smearing, width (Ry)=  0.0100

     Number of k-points >= 100: set verbosity='high' to print them.

     Dense  grid:    18805 G-vectors     FFT dimensions: (  36,  36,  36)

     Estimated max dynamical RAM per process >      69.03 MB

     Check: negative core charge=   -0.000014

     The potential is recalculated from file :
     ./pwscf.save/charge-density

     Starting wfcs are   32 randomized atomic wfcs
     Checking if some PAW data can be deallocated... 

     Band Structure Calculation
     Davidson diagonalization with overlap

     ethr =  3.12E-09,  avg # of iterations = 23.3

     total cpu time spent up to now is       90.6 secs

     End of band structure calculation

     Number of k-points >= 100: set verbosity='high' to print the bands.

     Writing output data file pwscf.save/

     init_run     :      1.37s CPU      1.14s WALL (       1 calls)
     electrons    :    359.45s CPU     88.92s WALL (       1 calls)

     Called by init_run:
     wfcinit      :      0.00s CPU      0.00s WALL (       1 calls)
     potinit      :      0.81s CPU      0.83s WALL (       1 calls)
     hinit0       :      0.42s CPU      0.25s WALL (       1 calls)

     Called by electrons:
     c_bands      :    359.45s CPU     88.92s WALL (       1 calls)
     v_of_rho     :      0.01s CPU      0.01s WALL (       1 calls)
     newd         :      0.08s CPU      0.03s WALL (       1 calls)
     PAW_pot      :      0.80s CPU      0.82s WALL (       1 calls)

     Called by c_bands:
     init_us_2    :      1.46s CPU      0.39s WALL (     122 calls)
     cegterg      :    324.88s CPU     79.82s WALL (     201 calls)

     Called by sum_band:

     Called by *egterg:
     h_psi        :    244.18s CPU     65.32s WALL (    3166 calls)
     s_psi        :     10.31s CPU      1.97s WALL (    3166 calls)
     g_psi        :      3.61s CPU      0.72s WALL (    2843 calls)
     cdiaghg      :     33.61s CPU      7.59s WALL (    2965 calls)

     Called by h_psi:
     h_psi:pot    :    241.10s CPU     64.62s WALL (    3166 calls)
     h_psi:calbec :     13.50s CPU      3.69s WALL (    3166 calls)
     vloc_psi     :    217.10s CPU     58.86s WALL (    3166 calls)
     add_vuspsi   :     10.44s CPU      2.07s WALL (    3166 calls)

     General routines
     calbec       :     13.47s CPU      3.68s WALL (    3166 calls)
     fft          :      0.01s CPU      0.01s WALL (      12 calls)
     fftw         :    189.84s CPU     51.51s WALL (  103946 calls)
     davcio       :      0.39s CPU      0.12s WALL (     244 calls)

     Parallel routines

     PWSCF        :   6m 1.59s CPU   1m32.35s WALL


   This run was terminated on:  13:32:22   8Nov2022            

=------------------------------------------------------------------------------=
   JOB DONE.
=------------------------------------------------------------------------------=
