     Message from routine get_command_line:
     unexpected argument # 2     :-in

     Program PWSCF v.6.4.1 starts on  8Nov2022 at 14: 2: 2 

     This program is part of the open-source Quantum ESPRESSO suite
     for quantum simulation of materials; please cite
         "P. Giannozzi et al., J. Phys.:Condens. Matter 21 395502 (2009);
         "P. Giannozzi et al., J. Phys.:Condens. Matter 29 465901 (2017);
          URL http://www.quantum-espresso.org", 
     in publications or presentations arising from this work. More details at
     http://www.quantum-espresso.org/quote

     Parallel version (MPI), running on     1 processors

     MPI processes distributed on     1 nodes
     Waiting for input...
     Reading input from standard input

     Current dimensions of program PWSCF are:
     Max number of different atomic species (ntypx) = 10
     Max number of k-points (npk) =  40000
     Max angular momentum in pseudopotentials (lmaxx) =  3
               file Si.pbe-n-kjpaw_psl.1.0.0.UPF: wavefunction(s)  3S 3P renormalized

     Subspace diagonalization in iterative solution of the eigenvalue problem:
     a serial algorithm will be used

     Found symmetry operation: I + (  0.0000 -0.5000 -0.5000)
     This is a supercell, fractional translations are disabled

     G-vector sticks info
     --------------------
     sticks:   dense  smooth     PW     G-vecs:    dense   smooth      PW
     Sum         853     853    261                18805    18805    3119



     bravais-lattice index     =            1
     lattice parameter (alat)  =      10.3344  a.u.
     unit-cell volume          =    1103.7127 (a.u.)^3
     number of atoms/cell      =            8
     number of atomic types    =            1
     number of electrons       =        32.00
     number of Kohn-Sham states=           20
     kinetic-energy cutoff     =      25.0000  Ry
     charge density cutoff     =     100.0000  Ry
     convergence threshold     =      1.0E-06
     mixing beta               =       0.7000
     number of iterations used =            8  plain     mixing
     Exchange-correlation      = SLA PW PBX PBC ( 1  4  3  4 0 0)

     celldm(1)=  10.334402  celldm(2)=   0.000000  celldm(3)=   0.000000
     celldm(4)=   0.000000  celldm(5)=   0.000000  celldm(6)=   0.000000

     crystal axes: (cart. coord. in units of alat)
               a(1) = (   1.000000   0.000000   0.000000 )  
               a(2) = (   0.000000   1.000000   0.000000 )  
               a(3) = (   0.000000   0.000000   1.000000 )  

     reciprocal axes: (cart. coord. in units 2 pi/alat)
               b(1) = (  1.000000  0.000000  0.000000 )  
               b(2) = (  0.000000  1.000000  0.000000 )  
               b(3) = (  0.000000  0.000000  1.000000 )  


     PseudoPot. # 1 for Si read from file:
     /home/ABTLUS/mario.neto/.burai/.pseudopot/Si.pbe-n-kjpaw_psl.1.0.0.UPF
     MD5 check sum: c39c59da582df4a0d9f10159256ea34e
     Pseudo is Projector augmented-wave + core cor, Zval =  4.0
     Generated using "atomic" code by A. Dal Corso v.6.3
     Shape of augmentation charge: PSQ
     Using radial grid of 1141 points,  6 beta functions with: 
                l(1) =   0
                l(2) =   0
                l(3) =   1
                l(4) =   1
                l(5) =   2
                l(6) =   2
     Q(r) pseudized with 0 coefficients 


     atomic species   valence    mass     pseudopotential
        Si             4.00    28.08550     Si( 1.00)

     24 Sym. Ops. (no inversion) found



   Cartesian axes

     site n.     atom                  positions (alat units)
         1           Si  tau(   1) = (   0.0000000   0.0000000   0.0000000  )
         2           Si  tau(   2) = (   0.7500000   0.7500000   0.2500000  )
         3           Si  tau(   3) = (   0.0000000   0.5000000   0.5000000  )
         4           Si  tau(   4) = (   0.7500000   0.2500000   0.7500000  )
         5           Si  tau(   5) = (   0.5000000   0.0000000   0.5000000  )
         6           Si  tau(   6) = (   0.2500000   0.7500000   0.7500000  )
         7           Si  tau(   7) = (   0.5000000   0.5000000   0.0000000  )
         8           Si  tau(   8) = (   0.2500000   0.2500000   0.2500000  )

     number of k points=     4  gaussian smearing, width (Ry)=  0.0100
                       cart. coord. in units 2pi/alat
        k(    1) = (   0.0000000   0.0000000   0.0000000), wk =   0.2500000
        k(    2) = (   0.0000000   0.0000000  -0.5000000), wk =   0.7500000
        k(    3) = (   0.0000000  -0.5000000  -0.5000000), wk =   0.7500000
        k(    4) = (  -0.5000000  -0.5000000  -0.5000000), wk =   0.2500000

     Dense  grid:    18805 G-vectors     FFT dimensions: (  36,  36,  36)

     Estimated max dynamical RAM per process >      76.68 MB

     Check: negative core charge=   -0.000014

     Initial potential from superposition of free atoms

     starting charge   31.99553, renormalised to   32.00000
     Starting wfcs are   32 randomized atomic wfcs
     Checking if some PAW data can be deallocated... 

     total cpu time spent up to now is        1.9 secs

     Self-consistent Calculation

     iteration #  1     ecut=    25.00 Ry     beta= 0.70
     Davidson diagonalization with overlap
     ethr =  1.00E-02,  avg # of iterations =  4.0

     Threshold (ethr) on eigenvalues was too large:
     Diagonalizing with lowered threshold

     Davidson diagonalization with overlap
     ethr =  7.46E-04,  avg # of iterations =  1.5

     total cpu time spent up to now is        3.8 secs

     total energy              =    -373.74070816 Ry
     Harris-Foulkes estimate   =    -373.79903822 Ry
     estimated scf accuracy    <       0.24152190 Ry

     iteration #  2     ecut=    25.00 Ry     beta= 0.70
     Davidson diagonalization with overlap
     ethr =  7.55E-04,  avg # of iterations =  1.0

     total cpu time spent up to now is        5.2 secs

     total energy              =    -373.74924596 Ry
     Harris-Foulkes estimate   =    -373.74997630 Ry
     estimated scf accuracy    <       0.01128453 Ry

     iteration #  3     ecut=    25.00 Ry     beta= 0.70
     Davidson diagonalization with overlap
     ethr =  3.53E-05,  avg # of iterations =  2.8

     total cpu time spent up to now is        6.8 secs

     total energy              =    -373.75052026 Ry
     Harris-Foulkes estimate   =    -373.75056256 Ry
     estimated scf accuracy    <       0.00019301 Ry

     iteration #  4     ecut=    25.00 Ry     beta= 0.70
     Davidson diagonalization with overlap
     ethr =  6.03E-07,  avg # of iterations =  3.2

     total cpu time spent up to now is        8.3 secs

     total energy              =    -373.75061160 Ry
     Harris-Foulkes estimate   =    -373.75061153 Ry
     estimated scf accuracy    <       0.00000328 Ry

     iteration #  5     ecut=    25.00 Ry     beta= 0.70
     Davidson diagonalization with overlap
     ethr =  1.03E-08,  avg # of iterations =  3.8

     total cpu time spent up to now is        9.8 secs

     End of self-consistent calculation

          k = 0.0000 0.0000 0.0000 (  2325 PWs)   bands (ev):

    -5.7919  -1.7203  -1.7196  -1.7196  -1.7196  -1.7191  -1.7191   3.2290
     3.2290   3.2290   3.2295   3.2295   3.2295   6.0396   6.0396   6.0396
     6.7713   6.7713   6.7713   6.7713

          k = 0.0000 0.0000-0.5000 (  2360 PWs)   bands (ev):

    -4.7290  -4.7284  -1.5644  -1.5640  -1.5640  -1.5635   2.2578   2.2580
     2.2580   2.2582   2.5143   2.5145   4.1779   4.1779   4.1784   4.1784
     7.1710   7.1713   9.1561   9.1563

          k = 0.0000-0.5000-0.5000 (  2360 PWs)   bands (ev):

    -3.7867  -3.7857  -3.7857  -3.7857   0.5884   0.5887   0.5888   0.5888
     2.3509   2.3512   2.3512   2.3514   4.7275   4.7275   4.7280   4.7282
     8.4574   8.4575   8.4580   8.4580

          k =-0.5000-0.5000-0.5000 (  2320 PWs)   bands (ev):

    -3.5103  -3.5092  -3.5092  -3.5092  -0.8479  -0.8478  -0.8478  -0.8478
     4.8525   4.8525   4.8525   4.8533   4.8533   4.8533   4.8534   4.8534
     7.4930   7.4935   7.4935   7.4935

     the Fermi energy is     6.4020 ev

!    total energy              =    -373.75061298 Ry
     Harris-Foulkes estimate   =    -373.75061308 Ry
     estimated scf accuracy    <       0.00000032 Ry

     total all-electron energy =     -4640.517533 Ry

     The total energy is the sum of the following terms:

     one-electron contribution =      22.30484848 Ry
     hartree contribution      =       4.58598510 Ry
     xc contribution           =     -49.18683747 Ry
     ewald contribution        =     -66.71988859 Ry
     one-center paw contrib.   =    -284.73471697 Ry
     smearing contrib. (-TS)   =      -0.00000353 Ry

     convergence has been achieved in   5 iterations

     Writing output data file pwscf.save/

     init_run     :      2.36s CPU      1.43s WALL (       1 calls)
     electrons    :     18.62s CPU      7.91s WALL (       1 calls)

     Called by init_run:
     wfcinit      :      1.02s CPU      0.29s WALL (       1 calls)
     potinit      :      0.79s CPU      0.84s WALL (       1 calls)
     hinit0       :      0.43s CPU      0.22s WALL (       1 calls)

     Called by electrons:
     c_bands      :     10.68s CPU      2.75s WALL (       6 calls)
     sum_band     :      2.71s CPU      0.75s WALL (       6 calls)
     v_of_rho     :      0.38s CPU      0.11s WALL (       6 calls)
     newd         :      0.54s CPU      0.29s WALL (       6 calls)
     PAW_pot      :      5.11s CPU      4.88s WALL (       6 calls)
     mix_rho      :      0.03s CPU      0.01s WALL (       6 calls)

     Called by c_bands:
     init_us_2    :      0.71s CPU      0.17s WALL (      52 calls)
     cegterg      :      7.91s CPU      2.01s WALL (      24 calls)

     Called by sum_band:
     sum_band:bec :      0.00s CPU      0.00s WALL (      24 calls)
     addusdens    :      1.02s CPU      0.28s WALL (       6 calls)

     Called by *egterg:
     h_psi        :      7.03s CPU      1.96s WALL (      93 calls)
     s_psi        :      0.31s CPU      0.06s WALL (      93 calls)
     g_psi        :      0.08s CPU      0.01s WALL (      65 calls)
     cdiaghg      :      0.44s CPU      0.08s WALL (      85 calls)

     Called by h_psi:
     h_psi:pot    :      6.93s CPU      1.94s WALL (      93 calls)
     h_psi:calbec :      0.32s CPU      0.08s WALL (      93 calls)
     vloc_psi     :      6.31s CPU      1.80s WALL (      93 calls)
     add_vuspsi   :      0.30s CPU      0.06s WALL (      93 calls)

     General routines
     calbec       :      0.50s CPU      0.12s WALL (     117 calls)
     fft          :      0.16s CPU      0.06s WALL (      67 calls)
     ffts         :      0.02s CPU      0.01s WALL (       6 calls)
     fftw         :      6.44s CPU      1.84s WALL (    3274 calls)

     Parallel routines

     PWSCF        :     21.49s CPU      9.83s WALL


   This run was terminated on:  14: 2:12   8Nov2022            

=------------------------------------------------------------------------------=
   JOB DONE.
=------------------------------------------------------------------------------=
